
     Program PWSCF v.6.7MaX starts on 18May2024 at 12:36:42 

     This program is part of the open-source Quantum ESPRESSO suite
     for quantum simulation of materials; please cite
         "P. Giannozzi et al., J. Phys.:Condens. Matter 21 395502 (2009);
         "P. Giannozzi et al., J. Phys.:Condens. Matter 29 465901 (2017);
          URL http://www.quantum-espresso.org", 
     in publications or presentations arising from this work. More details at
     http://www.quantum-espresso.org/quote

     Parallel version (MPI), running on     1 processors

     MPI processes distributed on     1 nodes
     Waiting for input...
     Reading input from standard input

     Current dimensions of program PWSCF are:
     Max number of different atomic species (ntypx) = 10
     Max number of k-points (npk) =  40000
     Max angular momentum in pseudopotentials (lmaxx) =  3

     Subspace diagonalization in iterative solution of the eigenvalue problem:
     a serial algorithm will be used

     Message from routine setup:
     no reason to have ecutrho>4*ecutwfc

     G-vector sticks info
     --------------------
     sticks:   dense  smooth     PW     G-vecs:    dense   smooth      PW
     Sum         163      85     19                17383     6291     781



     bravais-lattice index     =            4
     lattice parameter (alat)  =       2.4600  a.u.
     unit-cell volume          =     128.9246 (a.u.)^3
     number of atoms/cell      =            2
     number of atomic types    =            1
     number of electrons       =         8.00
     number of Kohn-Sham states=            4
     kinetic-energy cutoff     =      50.0000  Ry
     charge density cutoff     =     400.0000  Ry
     scf convergence threshold =      1.0E-08
     mixing beta               =       0.7000
     number of iterations used =            8  plain     mixing
     Exchange-correlation= SLA  PZ   NOGX NOGC
                           (   1   1   0   0   0   0   0)

     celldm(1)=   2.460000  celldm(2)=   0.000000  celldm(3)=  10.000000
     celldm(4)=   0.000000  celldm(5)=   0.000000  celldm(6)=   0.000000

     crystal axes: (cart. coord. in units of alat)
               a(1) = (   1.000000   0.000000   0.000000 )  
               a(2) = (  -0.500000   0.866025   0.000000 )  
               a(3) = (   0.000000   0.000000  10.000000 )  

     reciprocal axes: (cart. coord. in units 2 pi/alat)
               b(1) = (  1.000000  0.577350 -0.000000 )  
               b(2) = (  0.000000  1.154701  0.000000 )  
               b(3) = (  0.000000 -0.000000  0.100000 )  


     PseudoPot. # 1 for C  read from file:
     ./examples/pseudos/C.pz-vbc.UPF
     MD5 check sum: bc7c283643637ae0d0c5cde1a88c52bb
     Pseudo is Norm-conserving, Zval =  4.0
     Generated by new atomic code, or converted to UPF format
     Using radial grid of  269 points,  1 beta functions with: 
                l(1) =   0

     atomic species   valence    mass     pseudopotential
        C              4.00    12.01070     C ( 1.00)

      2 Sym. Ops. (no inversion) found



   Cartesian axes

     site n.     atom                  positions (alat units)
         1           C   tau(   1) = (   0.0000000   0.0000000   0.0000000  )
         2           C   tau(   2) = (   0.6666670   0.3333330   0.0000000  )

     number of k points=     1
                       cart. coord. in units 2pi/alat
        k(    1) = (   0.0000000   0.0000000   0.0000000), wk =   2.0000000

     Dense  grid:    17383 G-vectors     FFT dimensions: (  15,  15, 160)

     Smooth grid:     6291 G-vectors     FFT dimensions: (  12,  12, 120)

     Estimated max dynamical RAM per process >       9.89 MB

     Initial potential from superposition of free atoms

     starting charge    7.99994, renormalised to    8.00000

     negative rho (up, down):  3.055E-03 0.000E+00
     Starting wfcs are    8 randomized atomic wfcs

     total cpu time spent up to now is        0.0 secs

     Self-consistent Calculation

     iteration #  1     ecut=    50.00 Ry     beta= 0.70
     Davidson diagonalization with overlap
     ethr =  1.00E-02,  avg # of iterations =  4.0

     negative rho (up, down):  8.635E-04 0.000E+00

     total cpu time spent up to now is        0.0 secs

     total energy              =      -8.90684123 Ry
     estimated scf accuracy    <       6.61271931 Ry

     iteration #  2     ecut=    50.00 Ry     beta= 0.70
     Davidson diagonalization with overlap
     ethr =  1.00E-02,  avg # of iterations =  8.0

     total cpu time spent up to now is        0.0 secs

     total energy              =       1.71403646 Ry
     estimated scf accuracy    <      74.83482500 Ry

     iteration #  3     ecut=    50.00 Ry     beta= 0.70
     Davidson diagonalization with overlap
     ethr =  1.00E-02,  avg # of iterations =  9.0

     total cpu time spent up to now is        0.0 secs

     total energy              =     -11.73465742 Ry
     estimated scf accuracy    <       1.38379091 Ry

     iteration #  4     ecut=    50.00 Ry     beta= 0.70
     Davidson diagonalization with overlap
     ethr =  1.00E-02,  avg # of iterations =  2.0

     total cpu time spent up to now is        0.1 secs

     total energy              =     -11.55222123 Ry
     estimated scf accuracy    <       0.35150163 Ry

     iteration #  5     ecut=    50.00 Ry     beta= 0.70
     Davidson diagonalization with overlap
     ethr =  4.39E-03,  avg # of iterations =  2.0

     total cpu time spent up to now is        0.1 secs

     total energy              =     -11.57311754 Ry
     estimated scf accuracy    <       0.04113375 Ry

     iteration #  6     ecut=    50.00 Ry     beta= 0.70
     Davidson diagonalization with overlap
     ethr =  5.14E-04,  avg # of iterations =  5.0

     total cpu time spent up to now is        0.1 secs

     total energy              =     -11.58728315 Ry
     estimated scf accuracy    <       0.04318864 Ry

     iteration #  7     ecut=    50.00 Ry     beta= 0.70
     Davidson diagonalization with overlap
     ethr =  5.14E-04,  avg # of iterations =  1.0

     total cpu time spent up to now is        0.1 secs

     total energy              =     -11.56536183 Ry
     estimated scf accuracy    <       0.05288020 Ry

     iteration #  8     ecut=    50.00 Ry     beta= 0.70
     Davidson diagonalization with overlap
     ethr =  5.14E-04,  avg # of iterations =  2.0

     total cpu time spent up to now is        0.1 secs

     total energy              =     -11.56895706 Ry
     estimated scf accuracy    <       0.01261614 Ry

     iteration #  9     ecut=    50.00 Ry     beta= 0.70
     Davidson diagonalization with overlap
     ethr =  1.58E-04,  avg # of iterations =  2.0

     total cpu time spent up to now is        0.1 secs

     total energy              =     -11.57185119 Ry
     estimated scf accuracy    <       0.01006666 Ry

     iteration # 10     ecut=    50.00 Ry     beta= 0.70
     Davidson diagonalization with overlap
     ethr =  1.26E-04,  avg # of iterations =  1.0

     total cpu time spent up to now is        0.1 secs

     total energy              =     -11.56651727 Ry
     estimated scf accuracy    <       0.01306955 Ry

     iteration # 11     ecut=    50.00 Ry     beta= 0.70
     Davidson diagonalization with overlap
     ethr =  1.26E-04,  avg # of iterations =  2.0

     negative rho (up, down):  3.150E-06 0.000E+00

     total cpu time spent up to now is        0.1 secs

     total energy              =     -11.56374887 Ry
     estimated scf accuracy    <       0.00537246 Ry

     iteration # 12     ecut=    50.00 Ry     beta= 0.70
     Davidson diagonalization with overlap
     ethr =  6.72E-05,  avg # of iterations =  2.0

     negative rho (up, down):  4.479E-06 0.000E+00

     total cpu time spent up to now is        0.1 secs

     total energy              =     -11.56411282 Ry
     estimated scf accuracy    <       0.00060700 Ry

     iteration # 13     ecut=    50.00 Ry     beta= 0.70
     Davidson diagonalization with overlap
     ethr =  7.59E-06,  avg # of iterations =  5.0

     negative rho (up, down):  9.273E-08 0.000E+00

     total cpu time spent up to now is        0.1 secs

     total energy              =     -11.56410611 Ry
     estimated scf accuracy    <       0.00063151 Ry

     iteration # 14     ecut=    50.00 Ry     beta= 0.70
     Davidson diagonalization with overlap
     ethr =  7.59E-06,  avg # of iterations =  2.0

     negative rho (up, down):  1.363E-06 0.000E+00

     total cpu time spent up to now is        0.1 secs

     total energy              =     -11.56440591 Ry
     estimated scf accuracy    <       0.00056281 Ry

     iteration # 15     ecut=    50.00 Ry     beta= 0.70
     Davidson diagonalization with overlap
     ethr =  7.04E-06,  avg # of iterations =  4.0

     total cpu time spent up to now is        0.1 secs

     total energy              =     -11.56419757 Ry
     estimated scf accuracy    <       0.00180491 Ry

     iteration # 16     ecut=    50.00 Ry     beta= 0.70
     Davidson diagonalization with overlap
     ethr =  7.04E-06,  avg # of iterations =  2.0

     total cpu time spent up to now is        0.1 secs

     total energy              =     -11.56436663 Ry
     estimated scf accuracy    <       0.00098543 Ry

     iteration # 17     ecut=    50.00 Ry     beta= 0.70
     Davidson diagonalization with overlap
     ethr =  7.04E-06,  avg # of iterations =  1.0

     total cpu time spent up to now is        0.1 secs

     total energy              =     -11.56440112 Ry
     estimated scf accuracy    <       0.00127486 Ry

     iteration # 18     ecut=    50.00 Ry     beta= 0.70
     Davidson diagonalization with overlap
     ethr =  7.04E-06,  avg # of iterations =  1.0

     negative rho (up, down):  5.704E-07 0.000E+00

     total cpu time spent up to now is        0.1 secs

     total energy              =     -11.56438979 Ry
     estimated scf accuracy    <       0.00134858 Ry

     iteration # 19     ecut=    50.00 Ry     beta= 0.70
     Davidson diagonalization with overlap
     ethr =  7.04E-06,  avg # of iterations =  1.0

     negative rho (up, down):  8.694E-07 0.000E+00

     total cpu time spent up to now is        0.1 secs

     total energy              =     -11.56415027 Ry
     estimated scf accuracy    <       0.00133846 Ry

     iteration # 20     ecut=    50.00 Ry     beta= 0.70
     Davidson diagonalization with overlap
     ethr =  7.04E-06,  avg # of iterations =  1.0

     total cpu time spent up to now is        0.1 secs

     total energy              =     -11.56405397 Ry
     estimated scf accuracy    <       0.00074169 Ry

     iteration # 21     ecut=    50.00 Ry     beta= 0.70
     Davidson diagonalization with overlap
     ethr =  7.04E-06,  avg # of iterations =  2.0

     total cpu time spent up to now is        0.1 secs

     total energy              =     -11.56386705 Ry
     estimated scf accuracy    <       0.00041028 Ry

     iteration # 22     ecut=    50.00 Ry     beta= 0.70
     Davidson diagonalization with overlap
     ethr =  5.13E-06,  avg # of iterations =  5.0

     total cpu time spent up to now is        0.2 secs

     total energy              =     -11.56397841 Ry
     estimated scf accuracy    <       0.00004368 Ry

     iteration # 23     ecut=    50.00 Ry     beta= 0.70
     Davidson diagonalization with overlap
     ethr =  5.46E-07,  avg # of iterations =  5.0

     total cpu time spent up to now is        0.2 secs

     total energy              =     -11.56398308 Ry
     estimated scf accuracy    <       0.00008074 Ry

     iteration # 24     ecut=    50.00 Ry     beta= 0.70
     Davidson diagonalization with overlap
     ethr =  5.46E-07,  avg # of iterations =  2.0

     total cpu time spent up to now is        0.2 secs

     total energy              =     -11.56399227 Ry
     estimated scf accuracy    <       0.00000500 Ry

     iteration # 25     ecut=    50.00 Ry     beta= 0.70
     Davidson diagonalization with overlap
     ethr =  6.26E-08,  avg # of iterations =  5.0

     total cpu time spent up to now is        0.2 secs

     total energy              =     -11.56399491 Ry
     estimated scf accuracy    <       0.00000010 Ry

     iteration # 26     ecut=    50.00 Ry     beta= 0.70
     Davidson diagonalization with overlap
     c_bands:  1 eigenvalues not converged
     ethr =  1.25E-09,  avg # of iterations = 20.0

     total cpu time spent up to now is        0.2 secs

     total energy              =     -11.56399872 Ry
     estimated scf accuracy    <       0.00000218 Ry

     iteration # 27     ecut=    50.00 Ry     beta= 0.70
     Davidson diagonalization with overlap
     c_bands:  1 eigenvalues not converged
     ethr =  1.25E-09,  avg # of iterations = 20.0

     total cpu time spent up to now is        0.2 secs

     total energy              =     -11.78091075 Ry
     estimated scf accuracy    <       3.22558763 Ry

     iteration # 28     ecut=    50.00 Ry     beta= 0.70
     Davidson diagonalization with overlap
     ethr =  1.25E-09,  avg # of iterations = 17.0

     total cpu time spent up to now is        0.2 secs

     total energy              =     -11.78114561 Ry
     estimated scf accuracy    <       3.22531047 Ry

     iteration # 29     ecut=    50.00 Ry     beta= 0.70
     Davidson diagonalization with overlap
     ethr =  1.25E-09,  avg # of iterations =  1.0

     total cpu time spent up to now is        0.2 secs

     total energy              =     -11.78160235 Ry
     estimated scf accuracy    <       3.22566015 Ry

     iteration # 30     ecut=    50.00 Ry     beta= 0.70
     Davidson diagonalization with overlap
     ethr =  1.25E-09,  avg # of iterations =  2.0

     total cpu time spent up to now is        0.2 secs

     total energy              =     -11.78170043 Ry
     estimated scf accuracy    <       3.22632951 Ry

     iteration # 31     ecut=    50.00 Ry     beta= 0.70
     Davidson diagonalization with overlap
     ethr =  1.25E-09,  avg # of iterations =  1.0

     total cpu time spent up to now is        0.2 secs

     total energy              =     -11.78164447 Ry
     estimated scf accuracy    <       3.22647756 Ry

     iteration # 32     ecut=    50.00 Ry     beta= 0.70
     Davidson diagonalization with overlap
     ethr =  1.25E-09,  avg # of iterations =  1.0

     total cpu time spent up to now is        0.2 secs

     total energy              =     -11.78166631 Ry
     estimated scf accuracy    <       3.22637137 Ry

     iteration # 33     ecut=    50.00 Ry     beta= 0.70
     Davidson diagonalization with overlap
     ethr =  1.25E-09,  avg # of iterations =  1.0

     total cpu time spent up to now is        0.2 secs

     total energy              =     -11.78179331 Ry
     estimated scf accuracy    <       3.22648293 Ry

     iteration # 34     ecut=    50.00 Ry     beta= 0.70
     Davidson diagonalization with overlap
     ethr =  1.25E-09,  avg # of iterations =  1.0

     total cpu time spent up to now is        0.2 secs

     total energy              =     -11.78037673 Ry
     estimated scf accuracy    <       3.22668379 Ry

     iteration # 35     ecut=    50.00 Ry     beta= 0.70
     Davidson diagonalization with overlap
     ethr =  1.25E-09,  avg # of iterations =  3.0

     negative rho (up, down):  1.920E-03 0.000E+00

     total cpu time spent up to now is        0.2 secs

     total energy              =      -9.33349683 Ry
     estimated scf accuracy    <       3.22487505 Ry

     iteration # 36     ecut=    50.00 Ry     beta= 0.70
     Davidson diagonalization with overlap
     c_bands:  2 eigenvalues not converged
     ethr =  1.25E-09,  avg # of iterations = 20.0

     negative rho (up, down):  1.047E-03 0.000E+00

     total cpu time spent up to now is        0.3 secs

     total energy              =     -16.38612420 Ry
     estimated scf accuracy    <      90.67792483 Ry

     iteration # 37     ecut=    50.00 Ry     beta= 0.70
     Davidson diagonalization with overlap
     ethr =  1.25E-09,  avg # of iterations = 14.0

     negative rho (up, down):  1.751E-02 0.000E+00

     total cpu time spent up to now is        0.3 secs

     total energy              =     -16.35862994 Ry
     estimated scf accuracy    <      88.36057697 Ry

     iteration # 38     ecut=    50.00 Ry     beta= 0.70
     Davidson diagonalization with overlap
     ethr =  1.25E-09,  avg # of iterations = 14.0

     negative rho (up, down):  3.984E-04 0.000E+00

     total cpu time spent up to now is        0.3 secs

     total energy              =     -12.46856811 Ry
     estimated scf accuracy    <      88.23157810 Ry

     iteration # 39     ecut=    50.00 Ry     beta= 0.70
     Davidson diagonalization with overlap
     c_bands:  1 eigenvalues not converged
     ethr =  1.25E-09,  avg # of iterations = 20.0

     negative rho (up, down):  2.144E-04 0.000E+00

     total cpu time spent up to now is        0.3 secs

     total energy              =      -8.95479896 Ry
     estimated scf accuracy    <      26.05552215 Ry

     iteration # 40     ecut=    50.00 Ry     beta= 0.70
     Davidson diagonalization with overlap
     ethr =  1.25E-09,  avg # of iterations = 20.0

     total cpu time spent up to now is        0.3 secs

     total energy              =     -11.70326841 Ry
     estimated scf accuracy    <       1.30723315 Ry

     iteration # 41     ecut=    50.00 Ry     beta= 0.70
     Davidson diagonalization with overlap
     ethr =  1.25E-09,  avg # of iterations = 19.0

     total cpu time spent up to now is        0.3 secs

     total energy              =     -11.65159676 Ry
     estimated scf accuracy    <       0.40153537 Ry

     iteration # 42     ecut=    50.00 Ry     beta= 0.70
     Davidson diagonalization with overlap
     ethr =  1.25E-09,  avg # of iterations = 19.0

     total cpu time spent up to now is        0.3 secs

     total energy              =     -11.62306677 Ry
     estimated scf accuracy    <       0.21369200 Ry

     iteration # 43     ecut=    50.00 Ry     beta= 0.70
     Davidson diagonalization with overlap
     ethr =  1.25E-09,  avg # of iterations = 12.0

     total cpu time spent up to now is        0.3 secs

     total energy              =     -11.59417188 Ry
     estimated scf accuracy    <       0.14289671 Ry

     iteration # 44     ecut=    50.00 Ry     beta= 0.70
     Davidson diagonalization with overlap
     ethr =  1.25E-09,  avg # of iterations = 18.0

     negative rho (up, down):  1.206E-03 0.000E+00

     total cpu time spent up to now is        0.3 secs

     total energy              =     -11.55546512 Ry
     estimated scf accuracy    <       0.07718297 Ry

     iteration # 45     ecut=    50.00 Ry     beta= 0.70
     Davidson diagonalization with overlap
     ethr =  1.25E-09,  avg # of iterations = 20.0

     negative rho (up, down):  9.935E-04 0.000E+00

     total cpu time spent up to now is        0.4 secs

     total energy              =     -11.56463206 Ry
     estimated scf accuracy    <       0.00224785 Ry

     iteration # 46     ecut=    50.00 Ry     beta= 0.70
     Davidson diagonalization with overlap
     ethr =  1.25E-09,  avg # of iterations =  7.0

     negative rho (up, down):  3.777E-04 0.000E+00

     total cpu time spent up to now is        0.4 secs

     total energy              =     -11.56420368 Ry
     estimated scf accuracy    <       0.00202590 Ry

     iteration # 47     ecut=    50.00 Ry     beta= 0.70
     Davidson diagonalization with overlap
     ethr =  1.25E-09,  avg # of iterations =  8.0

     negative rho (up, down):  3.622E-04 0.000E+00

     total cpu time spent up to now is        0.4 secs

     total energy              =     -11.56407463 Ry
     estimated scf accuracy    <       0.00091748 Ry

     iteration # 48     ecut=    50.00 Ry     beta= 0.70
     Davidson diagonalization with overlap
     ethr =  1.25E-09,  avg # of iterations = 10.0

     negative rho (up, down):  1.091E-04 0.000E+00

     total cpu time spent up to now is        0.4 secs

     total energy              =     -11.56400673 Ry
     estimated scf accuracy    <       0.00034952 Ry

     iteration # 49     ecut=    50.00 Ry     beta= 0.70
     Davidson diagonalization with overlap
     ethr =  1.25E-09,  avg # of iterations =  8.0

     negative rho (up, down):  8.153E-06 0.000E+00

     total cpu time spent up to now is        0.4 secs

     total energy              =     -11.56399199 Ry
     estimated scf accuracy    <       0.00012550 Ry

     iteration # 50     ecut=    50.00 Ry     beta= 0.70
     Davidson diagonalization with overlap
     c_bands:  1 eigenvalues not converged
     ethr =  1.25E-09,  avg # of iterations = 20.0

     negative rho (up, down):  1.056E-05 0.000E+00

     total cpu time spent up to now is        0.4 secs

     total energy              =     -11.56401844 Ry
     estimated scf accuracy    <       0.00004644 Ry

     iteration # 51     ecut=    50.00 Ry     beta= 0.70
     Davidson diagonalization with overlap
     c_bands:  1 eigenvalues not converged
     ethr =  1.25E-09,  avg # of iterations = 20.0

     negative rho (up, down):  1.303E-07 0.000E+00

     total cpu time spent up to now is        0.4 secs

     total energy              =     -11.71174525 Ry
     estimated scf accuracy    <       3.22193862 Ry

     iteration # 52     ecut=    50.00 Ry     beta= 0.70
     Davidson diagonalization with overlap
     c_bands:  1 eigenvalues not converged
     ethr =  1.25E-09,  avg # of iterations = 20.0

     negative rho (up, down):  1.817E-07 0.000E+00

     total cpu time spent up to now is        0.4 secs

     total energy              =     -11.70375017 Ry
     estimated scf accuracy    <       3.09567390 Ry

     iteration # 53     ecut=    50.00 Ry     beta= 0.70
     Davidson diagonalization with overlap
     ethr =  1.25E-09,  avg # of iterations = 12.0

     negative rho (up, down):  4.827E-05 0.000E+00

     total cpu time spent up to now is        0.4 secs

     total energy              =     -11.78325285 Ry
     estimated scf accuracy    <       3.08031978 Ry

     iteration # 54     ecut=    50.00 Ry     beta= 0.70
     Davidson diagonalization with overlap
     ethr =  1.25E-09,  avg # of iterations = 14.0

     negative rho (up, down):  6.361E-05 0.000E+00

     total cpu time spent up to now is        0.4 secs

     total energy              =     -11.81309265 Ry
     estimated scf accuracy    <       3.22998407 Ry

     iteration # 55     ecut=    50.00 Ry     beta= 0.70
     Davidson diagonalization with overlap
     ethr =  1.25E-09,  avg # of iterations = 13.0

     negative rho (up, down):  5.097E-05 0.000E+00

     total cpu time spent up to now is        0.5 secs

     total energy              =     -11.82419040 Ry
     estimated scf accuracy    <       3.28158209 Ry

     iteration # 56     ecut=    50.00 Ry     beta= 0.70
     Davidson diagonalization with overlap
     ethr =  1.25E-09,  avg # of iterations =  9.0

     negative rho (up, down):  3.923E-06 0.000E+00

     total cpu time spent up to now is        0.5 secs

     total energy              =     -11.81379855 Ry
     estimated scf accuracy    <       3.30044668 Ry

     iteration # 57     ecut=    50.00 Ry     beta= 0.70
     Davidson diagonalization with overlap
     ethr =  1.25E-09,  avg # of iterations = 14.0

     negative rho (up, down):  1.412E-06 0.000E+00

     total cpu time spent up to now is        0.5 secs

     total energy              =     -11.80372042 Ry
     estimated scf accuracy    <       3.28006091 Ry

     iteration # 58     ecut=    50.00 Ry     beta= 0.70
     Davidson diagonalization with overlap
     ethr =  1.25E-09,  avg # of iterations =  7.0

     negative rho (up, down):  2.008E-07 0.000E+00

     total cpu time spent up to now is        0.5 secs

     total energy              =     -11.79327671 Ry
     estimated scf accuracy    <       3.26290196 Ry

     iteration # 59     ecut=    50.00 Ry     beta= 0.70
     Davidson diagonalization with overlap
     ethr =  1.25E-09,  avg # of iterations =  8.0

     negative rho (up, down):  1.143E-02 0.000E+00

     total cpu time spent up to now is        0.5 secs

     total energy              =      -9.30114613 Ry
     estimated scf accuracy    <       3.24471629 Ry

     iteration # 60     ecut=    50.00 Ry     beta= 0.70
     Davidson diagonalization with overlap
     c_bands:  2 eigenvalues not converged
     ethr =  1.25E-09,  avg # of iterations = 20.0

     negative rho (up, down):  3.402E-02 0.000E+00

     total cpu time spent up to now is        0.5 secs

     total energy              =     -18.72587685 Ry
     estimated scf accuracy    <      99.61422005 Ry

     iteration # 61     ecut=    50.00 Ry     beta= 0.70
     Davidson diagonalization with overlap
     ethr =  1.25E-09,  avg # of iterations = 14.0

     negative rho (up, down):  2.444E-02 0.000E+00

     total cpu time spent up to now is        0.5 secs

     total energy              =     -18.26171246 Ry
     estimated scf accuracy    <     121.37565336 Ry

     iteration # 62     ecut=    50.00 Ry     beta= 0.70
     Davidson diagonalization with overlap
     ethr =  1.25E-09,  avg # of iterations = 14.0

     negative rho (up, down):  2.121E-02 0.000E+00

     total cpu time spent up to now is        0.5 secs

     total energy              =     -16.55237913 Ry
     estimated scf accuracy    <     118.52714672 Ry

     iteration # 63     ecut=    50.00 Ry     beta= 0.70
     Davidson diagonalization with overlap
     c_bands:  1 eigenvalues not converged
     ethr =  1.25E-09,  avg # of iterations = 20.0

     negative rho (up, down):  3.293E-02 0.000E+00

     total cpu time spent up to now is        0.5 secs

     total energy              =     -15.87551291 Ry
     estimated scf accuracy    <      98.03760168 Ry

     iteration # 64     ecut=    50.00 Ry     beta= 0.70
     Davidson diagonalization with overlap
     ethr =  1.25E-09,  avg # of iterations = 16.0

     negative rho (up, down):  7.890E-02 0.000E+00

     total cpu time spent up to now is        0.5 secs

     total energy              =     -14.82130533 Ry
     estimated scf accuracy    <      87.31291538 Ry

     iteration # 65     ecut=    50.00 Ry     beta= 0.70
     Davidson diagonalization with overlap
     c_bands:  2 eigenvalues not converged
     ethr =  1.25E-09,  avg # of iterations = 20.0

     negative rho (up, down):  9.638E-02 0.000E+00

     total cpu time spent up to now is        0.6 secs

     total energy              =     -12.63246430 Ry
     estimated scf accuracy    <      85.00572750 Ry

     iteration # 66     ecut=    50.00 Ry     beta= 0.70
     Davidson diagonalization with overlap
     c_bands:  2 eigenvalues not converged
     ethr =  1.25E-09,  avg # of iterations = 20.0

     negative rho (up, down):  6.370E-02 0.000E+00

     total cpu time spent up to now is        0.6 secs

     total energy              =     -12.50164974 Ry
     estimated scf accuracy    <       7.88719184 Ry

     iteration # 67     ecut=    50.00 Ry     beta= 0.70
     Davidson diagonalization with overlap
     ethr =  1.25E-09,  avg # of iterations = 16.0

     negative rho (up, down):  6.266E-02 0.000E+00

     total cpu time spent up to now is        0.6 secs

     total energy              =     -11.39406563 Ry
     estimated scf accuracy    <       3.14739438 Ry

     iteration # 68     ecut=    50.00 Ry     beta= 0.70
     Davidson diagonalization with overlap
     c_bands:  1 eigenvalues not converged
     ethr =  1.25E-09,  avg # of iterations = 20.0

     negative rho (up, down):  7.630E-02 0.000E+00

     total cpu time spent up to now is        0.6 secs

     total energy              =     -11.46944680 Ry
     estimated scf accuracy    <       0.35184711 Ry

     iteration # 69     ecut=    50.00 Ry     beta= 0.70
     Davidson diagonalization with overlap
     c_bands:  1 eigenvalues not converged
     ethr =  1.25E-09,  avg # of iterations = 20.0

     negative rho (up, down):  7.912E-02 0.000E+00

     total cpu time spent up to now is        0.6 secs

     total energy              =     -11.31194258 Ry
     estimated scf accuracy    <       3.67996936 Ry

     iteration # 70     ecut=    50.00 Ry     beta= 0.70
     Davidson diagonalization with overlap
     c_bands:  1 eigenvalues not converged
     ethr =  1.25E-09,  avg # of iterations = 20.0

     negative rho (up, down):  8.344E-02 0.000E+00

     total cpu time spent up to now is        0.6 secs

     total energy              =     -11.60514803 Ry
     estimated scf accuracy    <       0.14887168 Ry

     iteration # 71     ecut=    50.00 Ry     beta= 0.70
     Davidson diagonalization with overlap
     c_bands:  1 eigenvalues not converged
     ethr =  1.25E-09,  avg # of iterations = 20.0

     negative rho (up, down):  3.001E-02 0.000E+00

     total cpu time spent up to now is        0.6 secs

     total energy              =     -11.65728103 Ry
     estimated scf accuracy    <       0.10118960 Ry

     iteration # 72     ecut=    50.00 Ry     beta= 0.70
     Davidson diagonalization with overlap
     c_bands:  1 eigenvalues not converged
     ethr =  1.25E-09,  avg # of iterations = 20.0

     negative rho (up, down):  6.394E-03 0.000E+00

     total cpu time spent up to now is        0.7 secs

     total energy              =     -11.63756725 Ry
     estimated scf accuracy    <       0.26925663 Ry

     iteration # 73     ecut=    50.00 Ry     beta= 0.70
     Davidson diagonalization with overlap
     c_bands:  1 eigenvalues not converged
     ethr =  1.25E-09,  avg # of iterations = 20.0

     negative rho (up, down):  5.983E-03 0.000E+00

     total cpu time spent up to now is        0.7 secs

     total energy              =     -11.60814055 Ry
     estimated scf accuracy    <       0.17800474 Ry

     iteration # 74     ecut=    50.00 Ry     beta= 0.70
     Davidson diagonalization with overlap
     ethr =  1.25E-09,  avg # of iterations = 15.0

     negative rho (up, down):  4.454E-03 0.000E+00

     total cpu time spent up to now is        0.7 secs

     total energy              =     -11.62262110 Ry
     estimated scf accuracy    <       0.10884753 Ry

     iteration # 75     ecut=    50.00 Ry     beta= 0.70
     Davidson diagonalization with overlap
     ethr =  1.25E-09,  avg # of iterations = 11.0

     negative rho (up, down):  2.218E-03 0.000E+00

     total cpu time spent up to now is        0.7 secs

     total energy              =     -11.60341354 Ry
     estimated scf accuracy    <       0.14077262 Ry

     iteration # 76     ecut=    50.00 Ry     beta= 0.70
     Davidson diagonalization with overlap
     ethr =  1.25E-09,  avg # of iterations = 19.0

     negative rho (up, down):  1.201E-03 0.000E+00

     total cpu time spent up to now is        0.7 secs

     total energy              =     -11.59609289 Ry
     estimated scf accuracy    <       0.09637910 Ry

     iteration # 77     ecut=    50.00 Ry     beta= 0.70
     Davidson diagonalization with overlap
     c_bands:  1 eigenvalues not converged
     ethr =  1.25E-09,  avg # of iterations = 20.0

     negative rho (up, down):  8.593E-04 0.000E+00

     total cpu time spent up to now is        0.7 secs

     total energy              =     -11.59123979 Ry
     estimated scf accuracy    <       0.07779309 Ry

     iteration # 78     ecut=    50.00 Ry     beta= 0.70
     Davidson diagonalization with overlap
     c_bands:  1 eigenvalues not converged
     ethr =  1.25E-09,  avg # of iterations = 20.0

     negative rho (up, down):  1.016E-03 0.000E+00

     total cpu time spent up to now is        0.7 secs

     total energy              =     -11.55310480 Ry
     estimated scf accuracy    <       0.06611659 Ry

     iteration # 79     ecut=    50.00 Ry     beta= 0.70
     Davidson diagonalization with overlap
     c_bands:  1 eigenvalues not converged
     ethr =  1.25E-09,  avg # of iterations = 20.0

     negative rho (up, down):  1.579E-03 0.000E+00

     total cpu time spent up to now is        0.7 secs

     total energy              =     -11.83746467 Ry
     estimated scf accuracy    <       3.22339721 Ry

     iteration # 80     ecut=    50.00 Ry     beta= 0.70
     Davidson diagonalization with overlap
     c_bands:  1 eigenvalues not converged
     ethr =  1.25E-09,  avg # of iterations = 20.0

     negative rho (up, down):  1.256E-03 0.000E+00

     total cpu time spent up to now is        0.7 secs

     total energy              =     -11.73643222 Ry
     estimated scf accuracy    <       3.35491999 Ry

     iteration # 81     ecut=    50.00 Ry     beta= 0.70
     Davidson diagonalization with overlap
     ethr =  1.25E-09,  avg # of iterations = 15.0

     negative rho (up, down):  9.670E-04 0.000E+00

     total cpu time spent up to now is        0.8 secs

     total energy              =     -11.38253403 Ry
     estimated scf accuracy    <       3.14014279 Ry

     iteration # 82     ecut=    50.00 Ry     beta= 0.70
     Davidson diagonalization with overlap
     c_bands:  1 eigenvalues not converged
     ethr =  1.25E-09,  avg # of iterations = 20.0

     negative rho (up, down):  8.899E-05 0.000E+00

     total cpu time spent up to now is        0.8 secs

     total energy              =     -11.56867270 Ry
     estimated scf accuracy    <       0.08443046 Ry

     iteration # 83     ecut=    50.00 Ry     beta= 0.70
     Davidson diagonalization with overlap
     c_bands:  1 eigenvalues not converged
     ethr =  1.25E-09,  avg # of iterations = 20.0

     negative rho (up, down):  1.068E-04 0.000E+00

     total cpu time spent up to now is        0.8 secs

     total energy              =     -11.57478303 Ry
     estimated scf accuracy    <       0.02048507 Ry

     iteration # 84     ecut=    50.00 Ry     beta= 0.70
     Davidson diagonalization with overlap
     c_bands:  1 eigenvalues not converged
     ethr =  1.25E-09,  avg # of iterations = 20.0

     negative rho (up, down):  5.950E-05 0.000E+00

     total cpu time spent up to now is        0.8 secs

     total energy              =     -11.57077061 Ry
     estimated scf accuracy    <       0.02605568 Ry

     iteration # 85     ecut=    50.00 Ry     beta= 0.70
     Davidson diagonalization with overlap
     c_bands:  1 eigenvalues not converged
     ethr =  1.25E-09,  avg # of iterations = 20.0

     negative rho (up, down):  1.213E-04 0.000E+00

     total cpu time spent up to now is        0.8 secs

     total energy              =     -11.63948297 Ry
     estimated scf accuracy    <       2.54233040 Ry

     iteration # 86     ecut=    50.00 Ry     beta= 0.70
     Davidson diagonalization with overlap
     c_bands:  1 eigenvalues not converged
     ethr =  1.25E-09,  avg # of iterations = 20.0

     negative rho (up, down):  1.044E-04 0.000E+00

     total cpu time spent up to now is        0.8 secs

     total energy              =     -11.69045156 Ry
     estimated scf accuracy    <       2.92949570 Ry

     iteration # 87     ecut=    50.00 Ry     beta= 0.70
     Davidson diagonalization with overlap
     c_bands:  1 eigenvalues not converged
     ethr =  1.25E-09,  avg # of iterations = 20.0

     negative rho (up, down):  7.146E-05 0.000E+00

     total cpu time spent up to now is        0.8 secs

     total energy              =     -11.68884784 Ry
     estimated scf accuracy    <       3.03329675 Ry

     iteration # 88     ecut=    50.00 Ry     beta= 0.70
     Davidson diagonalization with overlap
     c_bands:  1 eigenvalues not converged
     ethr =  1.25E-09,  avg # of iterations = 20.0

     negative rho (up, down):  1.730E-04 0.000E+00

     total cpu time spent up to now is        0.8 secs

     total energy              =     -11.69200451 Ry
     estimated scf accuracy    <       3.02140935 Ry

     iteration # 89     ecut=    50.00 Ry     beta= 0.70
     Davidson diagonalization with overlap
     c_bands:  1 eigenvalues not converged
     ethr =  1.25E-09,  avg # of iterations = 20.0

     negative rho (up, down):  4.064E-05 0.000E+00

     total cpu time spent up to now is        0.8 secs

     total energy              =     -11.65288048 Ry
     estimated scf accuracy    <       3.03331091 Ry

     iteration # 90     ecut=    50.00 Ry     beta= 0.70
     Davidson diagonalization with overlap
     c_bands:  1 eigenvalues not converged
     ethr =  1.25E-09,  avg # of iterations = 20.0

     negative rho (up, down):  5.748E-05 0.000E+00

     total cpu time spent up to now is        0.9 secs

     total energy              =     -11.64461014 Ry
     estimated scf accuracy    <       2.95803539 Ry

     iteration # 91     ecut=    50.00 Ry     beta= 0.70
     Davidson diagonalization with overlap
     c_bands:  1 eigenvalues not converged
     ethr =  1.25E-09,  avg # of iterations = 20.0

     negative rho (up, down):  3.801E-05 0.000E+00

     total cpu time spent up to now is        0.9 secs

     total energy              =     -11.64885968 Ry
     estimated scf accuracy    <       2.93623340 Ry

     iteration # 92     ecut=    50.00 Ry     beta= 0.70
     Davidson diagonalization with overlap
     ethr =  1.25E-09,  avg # of iterations = 19.0

     negative rho (up, down):  3.195E-05 0.000E+00

     total cpu time spent up to now is        0.9 secs

     total energy              =     -11.65261276 Ry
     estimated scf accuracy    <       2.95856152 Ry

     iteration # 93     ecut=    50.00 Ry     beta= 0.70
     Davidson diagonalization with overlap
     c_bands:  1 eigenvalues not converged
     ethr =  1.25E-09,  avg # of iterations = 20.0

     negative rho (up, down):  3.620E-02 0.000E+00

     total cpu time spent up to now is        0.9 secs

     total energy              =     -11.24513917 Ry
     estimated scf accuracy    <       2.96936488 Ry

     iteration # 94     ecut=    50.00 Ry     beta= 0.70
     Davidson diagonalization with overlap
     c_bands:  1 eigenvalues not converged
     ethr =  1.25E-09,  avg # of iterations = 20.0

     negative rho (up, down):  1.012E-03 0.000E+00

     total cpu time spent up to now is        0.9 secs

     total energy              =     -11.65870143 Ry
     estimated scf accuracy    <       1.25400987 Ry

     iteration # 95     ecut=    50.00 Ry     beta= 0.70
     Davidson diagonalization with overlap
     c_bands:  1 eigenvalues not converged
     ethr =  1.25E-09,  avg # of iterations = 20.0

     negative rho (up, down):  3.277E-04 0.000E+00

     total cpu time spent up to now is        0.9 secs

     total energy              =     -11.67353845 Ry
     estimated scf accuracy    <       0.37571556 Ry

     iteration # 96     ecut=    50.00 Ry     beta= 0.70
     Davidson diagonalization with overlap
     c_bands:  1 eigenvalues not converged
     ethr =  1.25E-09,  avg # of iterations = 20.0

     negative rho (up, down):  1.841E-06 0.000E+00

     total cpu time spent up to now is        0.9 secs

     total energy              =     -11.63833454 Ry
     estimated scf accuracy    <       0.28373288 Ry

     iteration # 97     ecut=    50.00 Ry     beta= 0.70
     Davidson diagonalization with overlap
     c_bands:  1 eigenvalues not converged
     ethr =  1.25E-09,  avg # of iterations = 20.0

     negative rho (up, down):  1.399E-05 0.000E+00

     total cpu time spent up to now is        0.9 secs

     total energy              =     -11.62573451 Ry
     estimated scf accuracy    <       0.18913871 Ry

     iteration # 98     ecut=    50.00 Ry     beta= 0.70
     Davidson diagonalization with overlap
     c_bands:  1 eigenvalues not converged
     ethr =  1.25E-09,  avg # of iterations = 20.0

     negative rho (up, down):  4.550E-05 0.000E+00

     total cpu time spent up to now is        0.9 secs

     total energy              =     -11.60254820 Ry
     estimated scf accuracy    <       0.15363765 Ry

     iteration # 99     ecut=    50.00 Ry     beta= 0.70
     Davidson diagonalization with overlap
     c_bands:  1 eigenvalues not converged
     ethr =  1.25E-09,  avg # of iterations = 20.0

     negative rho (up, down):  4.148E-05 0.000E+00

     total cpu time spent up to now is        1.0 secs

     total energy              =     -11.58394063 Ry
     estimated scf accuracy    <       0.09845293 Ry

     iteration #100     ecut=    50.00 Ry     beta= 0.70
     Davidson diagonalization with overlap
     c_bands:  1 eigenvalues not converged
     ethr =  1.25E-09,  avg # of iterations = 20.0

     negative rho (up, down):  2.762E-05 0.000E+00

     total cpu time spent up to now is        1.0 secs

     total energy              =     -11.54716175 Ry
     estimated scf accuracy    <       0.05291664 Ry

     End of self-consistent calculation

     convergence NOT achieved after 100 iterations: stopping

     Writing output data file ./examples/output/example_2/grafeno_1.save/
     Message from routine punch:
     wavefunctions written to file

     init_run     :      0.02s CPU      0.02s WALL (       1 calls)
     electrons    :      0.92s CPU      0.94s WALL (       1 calls)

     Called by init_run:
     wfcinit      :      0.00s CPU      0.00s WALL (       1 calls)
     potinit      :      0.01s CPU      0.01s WALL (       1 calls)
     hinit0       :      0.01s CPU      0.01s WALL (       1 calls)

     Called by electrons:
     c_bands      :      0.49s CPU      0.51s WALL (     100 calls)
     sum_band     :      0.12s CPU      0.12s WALL (     100 calls)
     v_of_rho     :      0.14s CPU      0.14s WALL (     101 calls)
     mix_rho      :      0.12s CPU      0.12s WALL (     100 calls)

     Called by c_bands:
     init_us_2    :      0.00s CPU      0.00s WALL (     201 calls)
     cegterg      :      0.49s CPU      0.50s WALL (     100 calls)

     Called by *egterg:
     cdiaghg      :      0.02s CPU      0.02s WALL (    1368 calls)
     h_psi        :      0.33s CPU      0.34s WALL (    1369 calls)
     g_psi        :      0.01s CPU      0.01s WALL (    1268 calls)

     Called by h_psi:
     h_psi:calbec :      0.01s CPU      0.01s WALL (    1369 calls)
     vloc_psi     :      0.31s CPU      0.32s WALL (    1369 calls)
     add_vuspsi   :      0.01s CPU      0.01s WALL (    1369 calls)

     General routines
     calbec       :      0.01s CPU      0.01s WALL (    1369 calls)
     fft          :      0.10s CPU      0.10s WALL (     504 calls)
     ffts         :      0.02s CPU      0.02s WALL (     201 calls)
     fftw         :      0.23s CPU      0.24s WALL (    6848 calls)
     interpolate  :      0.04s CPU      0.04s WALL (     101 calls)
     davcio       :      0.00s CPU      0.00s WALL (      19 calls)

     Parallel routines

     PWSCF        :      0.95s CPU      0.97s WALL


   This run was terminated on:  12:36:43  18May2024            

=------------------------------------------------------------------------------=
   JOB DONE.
=------------------------------------------------------------------------------=
