
     Program PWSCF v.6.7MaX starts on 18May2024 at 12: 3:59 

     This program is part of the open-source Quantum ESPRESSO suite
     for quantum simulation of materials; please cite
         "P. Giannozzi et al., J. Phys.:Condens. Matter 21 395502 (2009);
         "P. Giannozzi et al., J. Phys.:Condens. Matter 29 465901 (2017);
          URL http://www.quantum-espresso.org", 
     in publications or presentations arising from this work. More details at
     http://www.quantum-espresso.org/quote

     Parallel version (MPI), running on     1 processors

     MPI processes distributed on     1 nodes
     Waiting for input...
     Reading input from standard input

     Current dimensions of program PWSCF are:
     Max number of different atomic species (ntypx) = 10
     Max number of k-points (npk) =  40000
     Max angular momentum in pseudopotentials (lmaxx) =  3
     file C.pbe-n-kjpaw_psl.1.0.0.UPF: wavefunction(s)  2S 2P renormalized

     Subspace diagonalization in iterative solution of the eigenvalue problem:
     a serial algorithm will be used

     Message from routine setup:
     using ibrav=0 with symmetry is DISCOURAGED, use correct ibrav instead

     G-vector sticks info
     --------------------
     sticks:   dense  smooth     PW     G-vecs:    dense   smooth      PW
     Sum         265     265     61                21565    21565    2629



     bravais-lattice index     =            0
     lattice parameter (alat)  =       4.6487  a.u.
     unit-cell volume          =     530.3988 (a.u.)^3
     number of atoms/cell      =            2
     number of atomic types    =            1
     number of electrons       =         8.00
     number of Kohn-Sham states=            8
     kinetic-energy cutoff     =      45.0000  Ry
     charge density cutoff     =     180.0000  Ry
     scf convergence threshold =      1.0E-08
     mixing beta               =       0.7000
     number of iterations used =            8  plain     mixing
     Exchange-correlation= SLA  PW   PBX  PBC
                           (   1   4   3   4   0   0   0)

     celldm(1)=   4.648726  celldm(2)=   0.000000  celldm(3)=   0.000000
     celldm(4)=   0.000000  celldm(5)=   0.000000  celldm(6)=   0.000000

     crystal axes: (cart. coord. in units of alat)
               a(1) = (   1.000000   0.000000   0.000000 )  
               a(2) = (   0.500000   0.865854   0.000000 )  
               a(3) = (   0.000000   0.000000   6.097561 )  

     reciprocal axes: (cart. coord. in units 2 pi/alat)
               b(1) = (  1.000000 -0.577465  0.000000 )  
               b(2) = (  0.000000  1.154930  0.000000 )  
               b(3) = (  0.000000  0.000000  0.164000 )  


     PseudoPot. # 1 for C  read from file:
     ./examples/pseudos/C.pbe-n-kjpaw_psl.1.0.0.UPF
     MD5 check sum: 5f16ad9a65e90284d1d834d4ab3b0f7d
     Pseudo is Projector augmented-wave + core cor, Zval =  4.0
     Generated using &quot;atomic&quot; code by A. Dal Corso  v.6.3
     Shape of augmentation charge: PSQ
     Using radial grid of 1073 points,  4 beta functions with: 
                l(1) =   0
                l(2) =   0
                l(3) =   1
                l(4) =   1
     Q(r) pseudized with 0 coefficients 


     atomic species   valence    mass     pseudopotential
        C              4.00    12.01100     C ( 1.00)

      8 Sym. Ops., with inversion, found ( 4 have fractional translation)



   Cartesian axes

     site n.     atom                  positions (alat units)
         1           C   tau(   1) = (   0.0000000   0.0000000   0.0000000  )
         2           C   tau(   2) = (   0.5000000   0.2886179   0.0000000  )

     number of k points=     1  Gaussian smearing, width (Ry)=  0.0100
                       cart. coord. in units 2pi/alat
        k(    1) = (   0.0000000   0.0000000   0.0000000), wk =   2.0000000

     Dense  grid:    21565 G-vectors     FFT dimensions: (  24,  24, 125)

     Estimated max dynamical RAM per process >      30.02 MB

     Check: negative core charge=   -0.000022

     Initial potential from superposition of free atoms

     starting charge    7.99992, renormalised to    8.00000

     negative rho (up, down):  4.531E-04 0.000E+00
     Starting wfcs are    8 randomized atomic wfcs
     Checking if some PAW data can be deallocated... 

     total cpu time spent up to now is        0.3 secs

     Self-consistent Calculation

     iteration #  1     ecut=    45.00 Ry     beta= 0.70
     Davidson diagonalization with overlap
     ethr =  1.00E-02,  avg # of iterations =  6.0

     negative rho (up, down):  3.356E-04 0.000E+00

     total cpu time spent up to now is        0.4 secs

     total energy              =     -36.33657569 Ry
     estimated scf accuracy    <       0.37528537 Ry

     iteration #  2     ecut=    45.00 Ry     beta= 0.70
     Davidson diagonalization with overlap
     ethr =  4.69E-03,  avg # of iterations =  2.0

     negative rho (up, down):  2.946E-04 0.000E+00

     total cpu time spent up to now is        0.5 secs

     total energy              =     -36.38350631 Ry
     estimated scf accuracy    <       0.01082694 Ry

     iteration #  3     ecut=    45.00 Ry     beta= 0.70
     Davidson diagonalization with overlap
     ethr =  1.35E-04,  avg # of iterations = 10.0

     negative rho (up, down):  2.824E-04 0.000E+00

     total cpu time spent up to now is        0.7 secs

     total energy              =     -36.38392646 Ry
     estimated scf accuracy    <       0.00067326 Ry

     iteration #  4     ecut=    45.00 Ry     beta= 0.70
     Davidson diagonalization with overlap
     ethr =  8.42E-06,  avg # of iterations =  6.0

     negative rho (up, down):  2.847E-04 0.000E+00

     total cpu time spent up to now is        0.8 secs

     total energy              =     -36.38394465 Ry
     estimated scf accuracy    <       0.00000226 Ry

     iteration #  5     ecut=    45.00 Ry     beta= 0.70
     Davidson diagonalization with overlap
     ethr =  2.83E-08,  avg # of iterations =  2.0

     negative rho (up, down):  2.845E-04 0.000E+00

     total cpu time spent up to now is        0.9 secs

     total energy              =     -36.38394504 Ry
     estimated scf accuracy    <       0.00000003 Ry

     iteration #  6     ecut=    45.00 Ry     beta= 0.70
     Davidson diagonalization with overlap
     ethr =  4.36E-10,  avg # of iterations =  2.0

     negative rho (up, down):  2.844E-04 0.000E+00

     total cpu time spent up to now is        1.0 secs

     End of self-consistent calculation

          k = 0.0000 0.0000 0.0000 (  2629 PWs)   bands (ev):

   -21.1410  -9.4445  -4.3331  -4.3321   1.0820   1.8886   2.0998   4.1275

     the Fermi energy is    -2.0535 ev

!    total energy              =     -36.38394505 Ry

     total all-electron energy =      -151.912139 Ry
     estimated scf accuracy    <          2.7E-10 Ry
     smearing contrib. (-TS)   =      -0.00000000 Ry
     internal energy E=F+TS    =     -36.38394505 Ry

     The total energy is F=E-TS. E is the sum of the following terms:
     one-electron contribution =    -157.15364671 Ry
     hartree contribution      =      80.56648429 Ry
     xc contribution           =      -9.43628253 Ry
     ewald contribution        =      61.90459978 Ry
     one-center paw contrib.   =     -12.26509988 Ry

     convergence has been achieved in   6 iterations

     Writing output data file ./examples/output/example_1/grafeno_1.save/

     init_run     :      0.25s CPU      0.26s WALL (       1 calls)
     electrons    :      0.70s CPU      0.74s WALL (       1 calls)

     Called by init_run:
     wfcinit      :      0.01s CPU      0.01s WALL (       1 calls)
     potinit      :      0.10s CPU      0.10s WALL (       1 calls)
     hinit0       :      0.13s CPU      0.14s WALL (       1 calls)

     Called by electrons:
     c_bands      :      0.17s CPU      0.17s WALL (       6 calls)
     sum_band     :      0.08s CPU      0.09s WALL (       6 calls)
     v_of_rho     :      0.14s CPU      0.14s WALL (       7 calls)
     newd         :      0.05s CPU      0.06s WALL (       7 calls)
     PAW_pot      :      0.31s CPU      0.31s WALL (       7 calls)
     mix_rho      :      0.01s CPU      0.01s WALL (       6 calls)

     Called by c_bands:
     init_us_2    :      0.00s CPU      0.00s WALL (      13 calls)
     cegterg      :      0.17s CPU      0.17s WALL (       6 calls)

     Called by *egterg:
     cdiaghg      :      0.00s CPU      0.00s WALL (      34 calls)
     h_psi        :      0.13s CPU      0.13s WALL (      35 calls)
     s_psi        :      0.01s CPU      0.01s WALL (      35 calls)
     g_psi        :      0.00s CPU      0.00s WALL (      28 calls)

     Called by h_psi:
     h_psi:calbec :      0.01s CPU      0.01s WALL (      35 calls)
     vloc_psi     :      0.12s CPU      0.12s WALL (      35 calls)
     add_vuspsi   :      0.01s CPU      0.01s WALL (      35 calls)

     General routines
     calbec       :      0.01s CPU      0.01s WALL (      41 calls)
     fft          :      0.06s CPU      0.07s WALL (      77 calls)
     ffts         :      0.01s CPU      0.01s WALL (       6 calls)
     fftw         :      0.12s CPU      0.12s WALL (     336 calls)

     Parallel routines

     PWSCF        :      0.99s CPU      1.05s WALL


   This run was terminated on:  12: 4: 0  18May2024            

=------------------------------------------------------------------------------=
   JOB DONE.
=------------------------------------------------------------------------------=
